% Model:              channel_RPM.mph       
% Version:            COMSOL 5.5.0.306      
% Date:               Jan 29 2020, 16:44    
% Dimension:          3                     
% Nodes:              2783                  
% Elements:           5638                  
% Expressions:        0                     
% Description:                              
% Length unit:        µm                    
% Coordinates
-837.3721095460845       82.5                     69.99999999999999        
-843.1467353040523       82.49999999999997        74.99999999999996        
-831.5967800259147       82.49999999999997        74.99999999999999        
-848.9220095637829       82.49999999999999        69.99999999999999        
-854.6966905821901       82.49999999999997        74.99999999999997        
-860.4719095814817       82.5                     69.99999999999999        
-866.2466458603279       82.5                     75                       
-872.0218091807791       82.49999999999999        69.99999999999999        
-877.7966003016639       82.49999999999997        74.99999999999997        
-756.5228094221961       82.49999999999997        69.99999999999999        
-762.2970483570887       82.49999999999999        74.99999999999999        
-750.747093078951        82.49999999999999        74.99999999999999        
-744.9729094044977       82.49999999999999        69.99999999999999        
-739.1971378008133       82.5                     74.99999999999999        
-733.4230093867991       82.49999999999997        69.99999999999999        
-727.6471825226757       82.5                     74.99999999999999        
-732.5700385014303       69.2193063418103         74.99999999999999        
-721.418252399734        72.98481983093407        74.99999999999999        
-716.097227244538        82.5                     74.99999999999999        
-709.4866028327322       70.2608678877792         74.99999999999997        
-721.8731093691009       82.49999999999999        70                       
-704.5472719664004       82.50000000000001        74.99999999999999        
-710.3232093514026       82.49999999999999        69.99999999999999        
-698.7733093337042       82.49999999999999        69.99999999999999        
-692.9973166882627       82.5                     75                       
-697.6849714409103       69.28950375774366        74.99999999999999        
-686.4236625627535       73.3622138613386         74.99999999999999        
-681.4473614101248       82.49999999999997        74.99999999999997        
-669.8974061319873       82.49999999999999        75                       
-675.3048339141197       70.82731757124449        74.99999999999999        
-687.2234093160059       82.49999999999999        69.99999999999999        
-675.6735092983076       82.49999999999999        69.99999999999999        
-779.6226094575928       82.49999999999999        69.99999999999999        
-785.3969589133641       82.49999999999999        74.99999999999999        
-773.8470036352264       82.49999999999999        74.99999999999999        
-768.1275891449122       69.69120761431302        74.99999999999999        
-781.5042300880755       68.70637325186962        74.99999999999999        
-768.0727094398945       82.5                     70                       
-836.9831345036782       69.60495911853832        74.99999999999999        
-792.662971333088        73.57688269529632        74.99999999999999        
-796.9469141915019       82.5                     75                       
-791.1725094752912       82.49999999999999        69.99999999999999        
-802.7224094929895       82.49999999999999        69.99999999999999        
-808.4968694696395       82.49999999999999        74.99999999999999        
-825.8403327738464       73.41140108667861        74.99999999999999        
-820.046824747777        82.49999999999999        74.99999999999997        
-814.6521635124193       70.94477031322253        74.99999999999999        
-825.8222095283862       82.49999999999999        69.99999999999997        
-814.272309510688        82.5                     69.99999999999999        
-803.1672274286659       71.38940890467276        74.99999999999999        
-794.2014285504077       59.28639806489221        74.99999999999999        
-776.0077055820727       56.324378036729          74.99999999999999        
-796.9479495163397       82.5                     65                       
-789.7864685714615       46.95359431723256        74.99999999999999        
-807.8389480637886       46.35180425745679        74.99999999999999        
-808.5383053272359       61.79423537131601        75                       
-824.869249307601        58.12656189102012        74.99999999999999        
-831.5974837881168       82.5                     64.99999999999999        
-843.1473285453758       82.5                     65                       
-835.3838910709525       90.71084141503121        64.99999999999999        
-847.0437181599682       90.6646254411328         65                       
-889.2930240258828       82.49999999999999        74.99999999999997        
-889.2484271307263       76.20152037074286        74.99999999999999        
-883.5449429985016       82.49999999999997        69.99999999999997        
-894.6465764217951       82.49999999999999        69.99999999999999        
-900                     82.5                     75                       
-899.9999999999997       70.00928079903564        74.99999999999996        
-899.9999999999998       75.54844334819427        69.71343923228888        
-849.3219931286492       69.3907793840375         74.99999999999999        
-861.5912720831186       73.52154199745422        74.99999999999999        
-874.2431220933372       70.80349469477443        74.99999999999999        
-883.4912985354464       60.60331970682546        74.99999999999999        
-854.6971733026348       82.49999999999997        64.99999999999997        
-859.978737381514        90.96107020924987        64.99999999999999        
-877.7968619711204       82.5                     64.99999999999999        
-866.2470180598941       82.49999999999999        65                       
-870.5171945051977       89.81341393082657        64.99999999999999        
-843.0321163142858       58.2646176785702         74.99999999999999        
-863.0546627083694       53.83327407363464        74.99999999999999        
-899.9999999999998       70.13100886060951        64.04204219866813        
-899.9999999999999       51.27783734455179        74.99999999999999        
-873.6551068351744       36.08378403218825        74.99999999999999        
-839.0535206332377       30.22361020708928        74.99999999999999        
-490.8751090151336       82.49999999999999        69.99999999999999        
-496.6480769599218       82.49999999999999        74.99999999999999        
-485.0981216817842       82.5                     74.99999999999999        
-750.7485704873036       82.5                     65                       
-739.1987257300443       82.49999999999999        64.99999999999999        
-727.6488809727853       82.49999999999997        64.99999999999999        
-735.4062616143415       90.74729840222015        64.99999999999999        
-756.6333306693238       73.42092364598405        74.99999999999999        
-744.8434235357788       69.62075298250124        74.99999999999999        
-797.5389142754411       20.87734309932301        74.99999999999999        
-756.66367655652         57.05158514490097        74.99999999999997        
-762.2984152445626       82.5                     65                       
-737.0065362695117       55.82098755794962        74.99999999999999        
-720.1974169806097       58.1597293714525         74.99999999999997        
-726.1585134657181       43.07137401795256        74.99999999999999        
-711.0806038166957       40.62028801085435        74.99999999999999        
-684.8435865938134       58.62983007748929        74.99999999999999        
-702.8317852484979       56.6149543743817         74.99999999999999        
-716.0990362155263       82.5                     65                       
-548.6246091036253       82.49999999999997        69.99999999999997        
-554.3978533506101       82.49999999999997        74.99999999999997        
-542.8478980724725       82.49999999999997        74.99999999999997        
-583.4313480673891       73.17875369605233        74.99999999999999        
-577.4977639068857       82.5                     74.99999999999999        
-589.0477191850234       82.5                     75                       
-583.2743091567204       82.49999999999997        69.99999999999999        
-594.6333990974367       69.65982691452608        74.99999999999997        
-692.9993467010082       82.5                     64.99999999999999        
-704.5491914582673       82.5                     65                       
-712.2856430773295       90.77637015387303        64.99999999999999        
-652.0705400282326       73.00849920993556        74.99999999999999        
-641.0074698518047       69.8023022374079         74.99999999999999        
-646.7974955757118       82.49999999999999        74.99999999999999        
-651.8409020686604       57.6595242699338         74.99999999999999        
-658.3474508538495       82.5                     75                       
-652.5737092629108       82.49999999999999        69.99999999999999        
-663.345618344319        69.33586516386995        74.99999999999997        
-664.1236092806091       82.49999999999999        70                       
-669.89965718649         82.49999999999999        64.99999999999999        
-617.923633671008        73.36070101408853        74.99999999999999        
-617.0209914156146       58.19505445394918        74.99999999999999        
-606.2334830514119       69.95729915404061        74.99999999999999        
-629.062862439715        69.49675717254814        74.99999999999999        
-635.1385090505358       56.32481787826086        75                       
-641.0894275845321       37.69948651471111        74.99999999999999        
-626.6348902422701       42.56011067928821        74.99999999999999        
-668.85656892579         57.56476699449266        74.99999999999999        
-681.4495019437491       82.49999999999999        64.99999999999999        
-660.5791598337429       41.34960943055714        74.99999999999999        
-677.8911701825256       38.24614581431143        74.99999999999999        
-693.7882843320964       43.84680749215799        75                       
-635.2475402975741       82.49999999999999        74.99999999999999        
-641.0238092452124       82.49999999999997        69.99999999999999        
-623.6975850194365       82.5                     74.99999999999999        
-629.4739092275138       82.49999999999997        69.99999999999999        
-612.1476297412988       82.49999999999999        74.99999999999999        
-617.9240092098157       82.49999999999999        70                       
-600.5976744631611       82.5                     74.99999999999999        
-606.3741091921175       82.49999999999997        69.99999999999999        
-594.8242091744188       82.49999999999999        69.99999999999999        
-444.6755089443399       82.49999999999999        69.99999999999999        
-450.4482558473709       82.50000000000001        75                       
-438.8983005692332       82.49999999999999        74.99999999999999        
-565.947808628748        82.5                     74.99999999999999        
-559.0310829308239       69.46566505306117        74.99999999999999        
-560.1745091213238       82.49999999999999        70                       
-571.7244091390221       82.49999999999999        70                       
-693.1462875643638       24.33423497563575        74.99999999999999        
-547.9791773437896       73.30580883300087        74.99999999999997        
-537.074709085927        82.49999999999997        69.99999999999999        
-531.2979427943349       82.49999999999999        74.99999999999999        
-502.4250090328318       82.49999999999997        69.99999999999999        
-508.1980322380594       82.49999999999999        74.99999999999999        
-513.5413772890511       73.36006050522019        74.99999999999999        
-519.7479875161972       82.49999999999999        74.99999999999999        
-513.9749090505302       82.5                     69.99999999999999        
-731.559388035447        99.06809542743538        64.99999999999999        
-743.1400374594959       99.02521030463774        64.99999999999999        
-785.3981047590806       82.5                     64.99999999999999        
-791.1261311975042       88.46861329789404        64.99999999999999        
-800.6458254180563       89.98167723084813        64.99999999999999        
-773.8482600018215       82.49999999999999        64.99999999999999        
-781.5073196262457       90.07443372948646        64.99999999999999        
-770.0807481914782       90.55673021215392        64.99999999999999        
-839.2056669504017       99.06396127556324        64.99999999999999        
-791.1314566677986       97.2869555291356         64.99999999999999        
-804.2338253641797       98.61910186378648        64.99999999999999        
-723.8379337180486       90.7727995692884         64.99999999999999        
-719.9879819618362       99.09647601315257        64.99999999999999        
-708.4576905731942       99.0716841680844         65                       
-700.7342576597268       90.77849411769191        64.99999999999999        
-808.4977942735987       82.5                     65                       
-820.0476390308577       82.5                     64.99999999999999        
-758.5085309763191       90.70704872484316        64.99999999999999        
-768.7336826500762       36.18859284791313        75                       
-744.5292275625728       35.44070614320736        74.99999999999999        
-812.202086131781        90.52607736254473        65                       
-823.8175574222364       90.69947480900331        64.99999999999999        
-816.0652324060736       98.97552356967785        64.99999999999999        
-827.6283454655163       99.00848738273264        64.99999999999999        
-869.1029669193122       98.48345942878532        64.99999999999999        
-860.3580863078158       100.5963005135208        64.99999999999999        
-850.453606118602        98.99981341448282        64.99999999999999        
-879.4603881941466       94.62254001609764        64.99999999999999        
-889.2931528435904       82.5                     64.99999999999999        
-900                     82.5                     65                       
-889.3067179752458       89.54466055868565        64.99999999999999        
-889.2930240258814       107.5                    74.99999999999999        
-900                     107.5                    75                       
-889.2931978702533       107.5                    64.99999999999999        
-889.2899048426202       100.1454233360163        64.99999999999999        
-899.9999999999998       94.99999999999999        64.99999999999999        
-900                     107.5                    65                       
-899.9999999999999       114.5908592148216        66.30189784559411        
-899.9999999999998       59.35899193543796        53.28939238275129        
-899.9999999999999       76.52513230248178        52.41443630261325        
-899.9999999999998       23.18762365780148        74.99999999999997        
-899.9999999999998       39.00872981936837        49.09566177018492        
-863.0141039008228       1.609405767073611        75                       
-899.9999999999998       -18.93727230188169       74.99999999999999        
-808.3103843209381       -12.34342409680767       74.99999999999999        
-479.3252089974351       82.49999999999999        70                       
-473.5481664036464       82.5                     75                       
-427.3483452910955       82.49999999999999        74.99999999999999        
-432.4296668310421       72.68195935161765        74.99999999999999        
-442.1761657644905       73.98092661086375        74.99999999999999        
-440.3995437109489       61.73318301475695        74.99999999999999        
-433.1256089266414       82.49999999999999        69.99999999999997        
-419.0336180841207       69.86902999479847        75                       
-421.5757089089431       82.5                     69.99999999999999        
-415.7983900129579       82.5                     74.99999999999999        
-410.0258088912449       82.5                     69.99999999999999        
-404.2484347348201       82.5                     75                       
-537.2672535112882       70.43141878399615        74.99999999999999        
-525.5248090682285       82.49999999999999        69.99999999999999        
-611.4261915687749       37.04294878529277        74.99999999999999        
-571.6189138741793       69.59737976855686        74.99999999999999        
-600.8992077343629       56.21569981109732        74.99999999999999        
-583.5707622878853       57.42307687071474        74.99999999999999        
-592.022660427211        41.30589347304053        74.99999999999999        
-546.7776765814569       58.89564845849513        75                       
-627.9028172138998       19.76000343084519        74.99999999999997        
-565.2356893948195       56.51134986188168        74.99999999999999        
-571.3146988326259       36.26868831851186        74.99999999999999        
-555.623115795824        42.21167980668631        74.99999999999999        
-525.0486101687652       69.33010638101747        75                       
-529.712638290822        56.0157633597253         74.99999999999999        
-512.5238238446987       57.44993966082941        74.99999999999999        
-487.8556533370658       69.95515810189147        74.99999999999999        
-502.6139834356779       69.3936688052338         74.99999999999999        
-496.6519858276042       82.49999999999999        65                       
-485.1021410703452       82.49999999999999        64.99999999999999        
-452.5913980593391       70.53318857632178        74.99999999999999        
-456.1427912174588       54.24409271957421        74.99999999999999        
-467.7753089797366       82.49999999999999        69.99999999999999        
-461.9982111255085       82.49999999999999        74.99999999999999        
-456.2254089620383       82.5                     70                       
-467.1332895586141       71.05707815795355        74.99999999999999        
-475.4131028644579       60.72891670651507        74.99999999999999        
-477.3473449014634       73.45902193946756        74.99999999999999        
-438.9027620413089       82.49999999999999        65                       
-398.4759088735465       82.49999999999999        69.99999999999999        
-392.6984794566823       82.49999999999999        74.99999999999999        
-381.1485241785448       82.49999999999999        75                       
-383.4372318030428       70.53997107330395        74.99999999999999        
-386.926008855848        82.49999999999999        69.99999999999999        
-340.7264087850545       82.49999999999999        70                       
-346.4986583441316       82.49999999999997        74.99999999999999        
-334.9487030659939       82.50000000000001        75                       
-340.7224737987863       74.15445263377038        74.99999999999999        
-329.1765087673562       82.5                     70                       
-323.3987477878563       82.5                     75                       
-375.3761088381498       82.49999999999997        69.99999999999999        
-369.598568900407        82.49999999999999        74.99999999999999        
-358.0486136222693       82.49999999999999        74.99999999999999        
-362.5339230770992       72.82869262469957        75                       
-352.2763088027531       82.5                     69.99999999999999        
-363.8262088204513       82.49999999999999        69.99999999999999        
-427.3529172840497       82.49999999999997        64.99999999999997        
-431.1434432680403       90.76432978730807        64.99999999999999        
-408.7700070112087       73.23732964240784        74.99999999999999        
-397.383792937152        70.52988096191299        74.99999999999999        
-434.9975201906647       43.47385278698493        74.99999999999999        
-424.766678942397        57.75469183051894        74.99999999999999        
-410.8220944641981       39.39312163351241        74.99999999999999        
-408.0005355794482       60.04197620054268        74.99999999999999        
-329.8146631006136       70.75956431193924        74.99999999999999        
-349.5744807788598       71.11740389713529        74.99999999999997        
-340.6971035339228       62.50136843004267        74.99999999999999        
-354.3547319149404       58.35533972907552        74.99999999999999        
-303.9678319722886       72.59233388448365        74.99999999999999        
-291.6544112389537       70.53740443639524        74.99999999999999        
-300.2988372315808       82.49999999999999        74.99999999999999        
-317.2763285335309       68.58327149000502        74.99999999999999        
-311.8487925097184       82.5                     74.99999999999999        
-306.0767087319592       82.49999999999999        70                       
-317.6266087496578       82.49999999999997        69.99999999999999        
-271.4270086788641       82.49999999999999        70                       
-277.1989266753054       82.49999999999999        75                       
-265.6489713971677       82.5                     75                       
-259.8771086611657       82.49999999999999        70                       
-254.0990161190301       82.5                     75                       
-282.4079575596946       73.69246302635545        74.99999999999999        
-288.7488819534431       82.5                     75                       
-294.5268087142609       82.5                     69.99999999999999        
-282.9769086965626       82.49999999999997        69.99999999999999        
-248.3272086434675       82.49999999999999        69.99999999999999        
-242.5490608408923       82.49999999999999        75                       
-236.7773086257692       82.5                     70                       
-230.9991055627546       82.5                     74.99999999999999        
-225.2274086080708       82.49999999999999        70                       
-219.4491502846169       82.49999999999999        74.99999999999999        
-254.1052459251639       82.5                     65                       
-746.9432731226067       90.7555962918337         64.99999999999997        
-754.6368014039244       99.08023063575632        64.99999999999999        
-716.075421411787        107.5                    64.99999999999999        
-727.6252212318124       107.5                    64.99999999999999        
-739.175021051837        107.5                    64.99999999999999        
-744.9609793363377       107.5                    69.99999999999999        
-739.1971378008132       107.5                    75                       
-733.411101787256        107.5                    69.99999999999999        
-710.3113466890934       107.5                    69.99999999999999        
-704.5472719664001       107.5                    75                       
-716.0972272445379       107.5                    75                       
-727.6471825226754       107.5                    75                       
-721.8612242381751       107.5                    69.99999999999999        
-698.761469140012        107.5                    69.99999999999999        
-692.9973166882626       107.5                    74.99999999999999        
-704.5256215917611       107.5                    64.99999999999999        
-696.8875664288928       99.09763279647292        64.99999999999999        
-689.1783690281303       90.78625165048018        64.99999999999999        
-677.6414090555146       90.76980913839704        65                       
-673.7883065738816       99.0971309026168         64.99999999999999        
-685.3581323798903       99.0715738503192         64.99999999999999        
-753.6312279941401       -1.015317825164857       74.99999999999997        
-721.5372663522359       24.90073533381991        74.99999999999999        
-661.8242709159522       13.96177077967207        74.99999999999999        
-554.4012096138994       82.49999999999999        64.99999999999999        
-542.8513648566405       82.5                     65                       
-577.5008991284177       82.5                     64.99999999999999        
-589.0507438856766       82.49999999999999        65                       
-585.2396291184431       90.45815114768465        64.99999999999999        
-646.799967671972        82.49999999999999        64.99999999999999        
-658.3498124292311       82.5                     64.99999999999999        
-666.0799234722126       90.78469615982007        64.99999999999999        
-642.9801506880258       90.78471185748649        64.99999999999999        
-654.5418018038268       90.76973096489488        65                       
-662.2585537843304       99.07150595301187        64.99999999999999        
-650.6886660135044       99.0971260478633         64.99999999999999        
-639.1588325445705       99.07153653059822        65                       
-635.2501229147131       82.5                     65                       
-623.7002781574538       82.49999999999999        64.99999999999999        
-612.1504334001947       82.49999999999999        64.99999999999999        
-600.6005886429359       82.5                     65                       
-596.7827712424744       90.72002107382552        64.99999999999997        
-619.8780302104544       90.78435341050043        64.99999999999999        
-631.4415131795697       90.76987760156254        65                       
-608.3341221199958       90.76581995497106        64.99999999999999        
-604.4918151014886       99.07655174803872        64.99999999999997        
-462.0024515558269       82.5                     64.99999999999997        
-450.4526067985679       82.49999999999999        64.99999999999999        
-454.2429143346885       90.76409025088992        64.99999999999999        
-488.9060820231458       90.7824175956401         64.99999999999999        
-565.9510543711585       82.49999999999999        64.99999999999999        
-558.1439059633808       90.41694948060669        65                       
-561.8678903519624       99.12125203572398        64.99999999999999        
-550.4862432456794       99.08058865796994        64.99999999999999        
-571.6817103018345       92.07962806129012        64.99999999999999        
-571.6706735260366       100.9603206436716        64.99999999999999        
-592.9406055094057       99.06831924838079        64.99999999999999        
-535.1235454757924       90.79163024600108        64.99999999999999        
-546.7364808726086       90.82704119172482        64.99999999999999        
-538.9721851391726       99.13087680970003        64.99999999999999        
-700.5586469818988       -5.222672863908087       74.99999999999997        
-714.1764987743738       -36.81081240147978       74.99999999999999        
-628.7428877628222       -5.696240722350694       75                       
-531.3015200993814       82.5                     65                       
-508.2018305848632       82.49999999999997        64.99999999999999        
-519.7516753421223       82.49999999999999        64.99999999999999        
-512.0106035701563       90.78794761194266        64.99999999999999        
-500.4552613278679       90.78145640141274        64.99999999999999        
-504.3082908483326       99.128616046654          64.99999999999999        
-750.7248208718624       107.5                    64.99999999999999        
-778.0313189685273       98.64337170304211        65                       
-785.3742203373499       107.5                    64.99999999999999        
-766.2295253013765       98.99352849322339        65                       
-779.6106119862883       107.5                    69.99999999999997        
-773.824420511913        107.5                    64.99999999999997        
-773.8470036352267       107.5                    75                       
-762.2746206918877       107.5                    64.99999999999997        
-768.0607344345008       107.5                    69.99999999999997        
-750.7470930789509       107.5                    75                       
-762.2970483570886       107.5                    75                       
-756.5108568854193       107.5                    69.99999999999997        
-877.7957751068263       107.5                    64.99999999999999        
-883.5448990859586       107.5                    69.99999999999999        
-877.7966003016637       107.5                    74.99999999999999        
-872.0212104835773       107.5                    69.99999999999999        
-866.2466458603284       107.5                    74.99999999999999        
-843.1389584390615       107.5                    65                       
-831.5854824483098       107.5                    64.99999999999999        
-785.3969589133641       107.5                    74.99999999999999        
-791.1611291624183       107.5                    69.99999999999997        
-837.3678692324881       107.5                    70                       
-831.5967800259147       107.5                    74.99999999999999        
-825.8161535980436       107.5                    69.99999999999999        