% Model:              channel_RPM.mph       
% Version:            COMSOL 5.5.0.306      
% Date:               Jan 29 2020, 16:42    
% Dimension:          3                     
% Nodes:              6829                  
% Elements:           32424                 
% Expressions:        0                     
% Description:                              
% Length unit:        µm                    
% Coordinates
-733.4230093867991       82.49999999999997        69.99999999999999        
-727.6471825226757       82.5                     74.99999999999999        
-739.1971378008133       82.5                     74.99999999999999        
-732.5700385014303       69.2193063418103         74.99999999999999        
-721.8731093691009       82.49999999999999        70                       
-716.097227244538        82.5                     74.99999999999999        
-721.418252399734        72.98481983093407        74.99999999999999        
-710.3232093514026       82.49999999999999        69.99999999999999        
-704.5472719664004       82.50000000000001        74.99999999999999        
-709.4866028327322       70.2608678877792         74.99999999999997        
-698.7733093337042       82.49999999999999        69.99999999999999        
-692.9973166882627       82.5                     75                       
-697.6849714409103       69.28950375774366        74.99999999999999        
-677.0796062200218       73.37364678931185        68.39843749999999        
-675.3048339141197       70.82731757124449        74.99999999999999        
-669.8974061319873       82.49999999999999        75                       
-681.4473614101248       82.49999999999997        74.99999999999997        
-686.4236625627535       73.3622138613386         74.99999999999999        
-687.2234093160059       82.49999999999999        69.99999999999999        
-675.6735092983076       82.49999999999999        69.99999999999999        
-779.6226094575928       82.49999999999999        69.99999999999999        
-785.3969589133641       82.49999999999999        74.99999999999999        
-781.5042300880755       68.70637325186962        74.99999999999999        
-773.8470036352264       82.49999999999999        74.99999999999999        
-768.1275891449122       69.69120761431302        74.99999999999999        
-768.0727094398945       82.5                     70                       
-762.2970483570887       82.49999999999999        74.99999999999999        
-837.3721095460845       82.5                     69.99999999999999        
-831.5967800259147       82.49999999999997        74.99999999999999        
-843.1467353040523       82.49999999999997        74.99999999999996        
-836.9831345036782       69.60495911853832        74.99999999999999        
-844.7739741495815       76.96250205085882        69.24976422921121        
-791.1725094752912       82.49999999999999        69.99999999999999        
-796.9469141915019       82.5                     75                       
-792.662971333088        73.57688269529632        74.99999999999999        
-825.8222095283862       82.49999999999999        69.99999999999997        
-825.8403327738464       73.41140108667861        74.99999999999999        
-820.046824747777        82.49999999999999        74.99999999999997        
-814.272309510688        82.5                     69.99999999999999        
-814.6521635124193       70.94477031322253        74.99999999999999        
-808.4968694696395       82.49999999999999        74.99999999999999        
-827.3668822300911       75.19578109974128        66.78576244514562        
-802.7224094929895       82.49999999999999        69.99999999999999        
-803.1672274286659       71.38940890467276        74.99999999999999        
-796.9479495163397       82.5                     65                       
-764.9556094668008       74.75605804659834        65.93750000000001        
-787.5802966268126       64.87505847741066        63.466796875             
-776.0077055820727       56.324378036729          74.99999999999999        
-794.2014285504077       59.28639806489221        74.99999999999999        
-789.7864685714615       46.95359431723256        74.99999999999999        
-823.1362806720653       67.89156219948256        68.57152489029124        
-824.869249307601        58.12656189102012        74.99999999999999        
-808.5383053272359       61.79423537131601        75                       
-780.5293855368853       72.97937787895208        63.46679687499998        
-831.5974837881168       82.5                     64.99999999999999        
-837.3838631885435       73.66917704287128        63.57152489029126        
-843.1473285453758       82.5                     65                       
-848.9220095637829       82.49999999999999        69.99999999999999        
-841.3257448453138       90.02120462074326        58.85154278718655        
-847.0437181599682       90.6646254411328         65                       
-835.3838910709525       90.71084141503121        64.99999999999999        
-883.5449429985016       82.49999999999997        69.99999999999997        
-889.2930240258828       82.49999999999999        74.99999999999997        
-889.2484271307263       76.20152037074286        74.99999999999999        
-877.7966003016639       82.49999999999997        74.99999999999997        
-894.6465764217951       82.49999999999999        69.99999999999999        
-900                     82.5                     75                       
-899.9999999999998       75.54844334819427        69.71343923228888        
-899.9999999999997       70.00928079903564        74.99999999999996        
-854.6966905821901       82.49999999999997        74.99999999999997        
-849.3219931286492       69.3907793840375         74.99999999999999        
-860.4719095814817       82.5                     69.99999999999999        
-866.2466458603279       82.5                     75                       
-861.5912720831186       73.52154199745422        74.99999999999999        
-893.3316875065215       70.65428043584002        68.22832206164782        
-872.0218091807791       82.49999999999999        69.99999999999999        
-874.2431220933372       70.80349469477443        74.99999999999999        
-883.4912985354464       60.60331970682546        74.99999999999999        
-854.6971733026348       82.49999999999997        64.99999999999997        
-857.0469790946995       76.48149473144095        66.83290845163521        
-849.4672127865385       73.73714238224758        62.98424046043687        
-877.7968619711204       82.5                     64.99999999999999        
-881.0673207106672       70.84209492394275        67.73184621735909        
-866.2470180598941       82.49999999999999        65                       
-868.7916084392186       75.90336149903574        66.50484944946157        
-831.6203978317111       64.83835408574258        62.14304978058251        
-807.8389480637886       46.35180425745679        74.99999999999999        
-822.0817952317703       45.88187782073323        64.64304978058252        
-843.0321163142858       58.2646176785702         74.99999999999999        
-899.9999999999998       70.13100886060951        64.04204219866813        
-899.9999999999999       51.27783734455179        74.99999999999999        
-839.0535206332377       30.22361020708928        74.99999999999999        
-756.5228094221961       82.49999999999997        69.99999999999999        
-750.747093078951        82.49999999999999        74.99999999999999        
-756.6333306693238       73.42092364598405        74.99999999999999        
-750.7485704873036       82.5                     65                       
-744.9729094044977       82.49999999999999        69.99999999999999        
-744.8434235357788       69.62075298250124        74.99999999999999        
-775.66066631469         63.45875575790416        61.93359374999998        
-756.66367655652         57.05158514490097        74.99999999999997        
-762.2984152445626       82.5                     65                       
-761.8385094937069       67.01211609319668        61.87499999999999        
-739.1987257300443       82.49999999999999        64.99999999999999        
-727.6488809727853       82.49999999999997        64.99999999999999        
-737.0755561957036       72.55102174931616        65.89843749999999        
-755.033699433257        77.58969197665814        61.74964317908653        
-746.4447167809637       74.87189720992122        65.07812499999999        
-737.0065362695117       55.82098755794962        74.99999999999999        
-710.4782926703086       75.13525249970306        67.30285644531249        
-705.1583433183516       67.20170494711014        64.32617187499999        
-702.8317852484979       56.6149543743817         74.99999999999999        
-720.1974169806097       58.1597293714525         74.99999999999997        
-715.100283297306        67.45591346512865        58.05149712087788        
-727.7555683582575       70.63609766223918        66.67606389870669        
-722.6126791977463       77.78926374428319        64.63280859771795        
-716.0990362155263       82.5                     65                       
-583.2743091567204       82.49999999999997        69.99999999999999        
-589.0477191850234       82.5                     75                       
-583.4313480673891       73.17875369605233        74.99999999999999        
-577.4977639068857       82.5                     74.99999999999999        
-692.9993467010082       82.5                     64.99999999999999        
-687.1118859685023       74.74267249629476        65.29296875              
-704.5491914582673       82.5                     65                       
-652.5737092629108       82.49999999999999        69.99999999999999        
-646.7974955757118       82.49999999999999        74.99999999999999        
-658.3474508538495       82.5                     75                       
-652.0705400282326       73.00849920993556        74.99999999999999        
-663.345618344319        69.33586516386995        74.99999999999997        
-664.1236092806091       82.49999999999999        70                       
-669.89965718649         82.49999999999999        64.99999999999999        
-679.3074846734595       63.2504503194853         67.45279947916664        
-684.8435865938134       58.62983007748929        74.99999999999999        
-668.85656892579         57.56476699449266        74.99999999999999        
-697.0231715787753       73.34402308499779        62.79296875              
-690.268537120926        66.06375568787962        63.16979143120341        
-651.8409020686604       57.6595242699338         74.99999999999999        
-661.3583017617715       60.1915838286622         62.49999999999999        
-672.1278196896583       69.86475707975811        58.59374999999999        
-681.4495019437491       82.49999999999999        64.99999999999999        
-660.5791598337429       41.34960943055714        74.99999999999999        
-677.8911701825256       38.24614581431143        74.99999999999999        
-641.0238092452124       82.49999999999997        69.99999999999999        
-635.2475402975741       82.49999999999999        74.99999999999999        
-641.0074698518047       69.8023022374079         74.99999999999999        
-629.4739092275138       82.49999999999997        69.99999999999999        
-623.6975850194365       82.5                     74.99999999999999        
-629.062862439715        69.49675717254814        74.99999999999999        
-617.9240092098157       82.49999999999999        70                       
-617.923633671008        73.36070101408853        74.99999999999999        
-612.1476297412988       82.49999999999999        74.99999999999999        
-606.3741091921175       82.49999999999997        69.99999999999999        
-600.5976744631611       82.5                     74.99999999999999        
-606.2334830514119       69.95729915404061        74.99999999999999        
-594.8242091744188       82.49999999999999        69.99999999999999        
-594.6333990974367       69.65982691452608        74.99999999999997        
-560.1745091213238       82.49999999999999        70                       
-554.3978533506101       82.49999999999997        74.99999999999997        
-565.947808628748        82.5                     74.99999999999999        
-559.0310829308239       69.46566505306117        74.99999999999999        
-548.6246091036253       82.49999999999997        69.99999999999997        
-542.8478980724725       82.49999999999997        74.99999999999997        
-547.9791773437896       73.30580883300087        74.99999999999997        
-513.9749090505302       82.5                     69.99999999999999        
-508.1980322380594       82.49999999999999        74.99999999999999        
-519.7479875161972       82.49999999999999        74.99999999999999        
-513.5413772890511       73.36006050522019        74.99999999999999        
-785.3981047590806       82.5                     64.99999999999999        
-773.8482600018215       82.49999999999999        64.99999999999999        
-839.2056669504017       99.06396127556324        64.99999999999999        
-712.2856430773295       90.77637015387303        64.99999999999999        
-708.4576905731942       99.0716841680844         65                       
-709.3237905282637       93.93816644143776        57.28515625              
-719.9879819618362       99.09647601315257        64.99999999999999        
-700.7342576597268       90.77849411769191        64.99999999999999        
-844.2372522704421       64.9742847644952         60.96848092087376        
-846.5893745544627       55.26108341362875        57.04000581116503        
-793.8144381077161       72.27557776590952        63.26246691820116        
-804.1551926801756       73.476916868673          61.49712926944783        
-813.0082290194065       75.18196188587017        64.52746166389564        
-826.0612173277849       72.09641064146625        55.05589989029124        
-808.4977942735987       82.5                     65                       
-820.0476390308577       82.5                     64.99999999999999        
-826.0497603059878       80.92723359859495        56.48437499999999        
-811.7441485281248       67.86392377174033        59.05492332779126        
-800.6458254180563       89.98167723084813        64.99999999999999        
-805.9408664496104       85.67609780772403        56.29272460937501        
-800.7476556146692       53.69777398020424        63.466796875             
-777.4730726275584       44.41751151580831        58.86718749999999        
-768.7336826500762       36.18859284791313        75                       
-765.252559218902        51.05991159334994        60.40039062499999        
-781.1239815757673       24.28450777592302        58.67819816501042        
-797.5389142754411       20.87734309932301        74.99999999999999        
-791.1261311975042       88.46861329789404        64.99999999999999        
-794.9640728993927       86.12869415069591        54.22607421874999        
-771.8643515391984       75.94072023117187        56.82739257812499        
-806.5543956106527       29.08544459837284        54.99999999999999        
-815.9942618013965       10.40331794242835        54.55613901528386        
-785.7980625480036       70.91841755955089        52.21679687499999        
-793.6563631655497       61.04374370295169        51.93359374999999        
-827.9815721934563       62.25931764908455        49.62453204590441        
-814.9905027826509       53.22784754348068        53.10984665558251        
-781.5073196262457       90.07443372948646        64.99999999999999        
-782.7615740477202       83.51810518558879        52.98339843749999        
-770.0807481914782       90.55673021215392        64.99999999999999        
-763.0456894725044       86.67311398411029        58.12499999999999        
-758.5085309763191       90.70704872484316        64.99999999999999        
-767.5828479686896       82.6391792433774         51.24999999999999        
-812.202086131781        90.52607736254473        65                       
-823.8175574222364       90.69947480900331        64.99999999999999        
-804.2338253641797       98.61910186378648        64.99999999999999        
-807.0733251137389       96.53953866181865        55.46875                 
-816.0652324060736       98.97552356967785        64.99999999999999        
-797.5990729618727       95.47980057278603        56.78438007540758        
-791.1314566677986       97.2869555291356         64.99999999999999        
-850.453606118602        98.99981341448282        64.99999999999999        
-842.9443491596552       100.6272033211224        56.94603916037239        
-833.668148391848        99.26909408572102        54.06249999999999        
-827.6283454655163       99.00848738273264        64.99999999999999        
-827.197921077267        93.12533418732954        52.09649098523872        
-836.3422608114057       86.10507072557127        50.13402489029124        
-846.4757693763405       77.42434977520482        53.74849881776907        
-837.5824646047613       71.59498812278783        50.13450321468066        
-853.6231680005945       90.14631901785259        58.85154278718655        
-859.978737381514        90.96107020924987        64.99999999999999        
-865.1469077188126       88.69807418282205        56.6313397666717         
-870.5171945051977       89.81341393082657        64.99999999999999        
-869.1029669193122       98.48345942878532        64.99999999999999        
-860.3580863078158       100.5963005135208        64.99999999999999        
-857.2400726288822       99.57980308388805        56.42208856261457        
-847.9257974556701       90.34096106905386        52.65522031171686        
-889.2931528435904       82.5                     64.99999999999999        
-900                     82.5                     65                       
-889.2931978702533       107.5                    64.99999999999999        
-894.6465989351266       110.488711713716         60.33756909742908        
-889.2899048426202       100.1454233360163        64.99999999999999        
-900                     107.5                    65                       
-899.9999999999999       114.5908592148216        66.30189784559411        
-900                     107.5                    75                       
-889.3067179752458       89.54466055868565        64.99999999999999        
-886.3664410689904       86.59653699871211        54.78851074015439        
-879.4603881941466       94.62254001609764        64.99999999999999        
-856.8541067091733       65.11021544324784        59.79391206116502        
-863.0546627083694       53.83327407363464        74.99999999999999        
-865.0010090307778       67.62249198801229        63.95137252223675        
-886.6734120174483       55.31860077455682        63.80755676378797        
-873.6551068351744       36.08378403218825        74.99999999999999        
-888.1911965288584       72.93076861882099        59.40269045913491        
-875.7192754716942       64.66530850816881        63.03518032565487        
-860.7747508140526       79.51139676383845        51.34367114874621        
-876.9716793339663       86.73091368478256        54.78851074015439        
-875.0693042416792       75.23892205354711        56.44914845769533        
-836.3246423997521       45.41195138400966        54.28609956116502        
-854.7511474933864       39.92945972862817        59.93294074856489        
-843.3268368003656       16.35403066103213        50.90700404037621        
-870.6381185041893       52.79748521715286        55.60344912233004        
-852.1169413352278       56.69888888904145        44.58782412233004        
-885.3190592520946       45.90310751826062        52.34955544625748        
-899.9999999999998       59.35899193543796        53.28939238275129        
-899.9999999999999       76.52513230248178        52.41443630261325        
-899.9999999999998       23.18762365780148        74.99999999999997        
-868.4234074618192       27.62373469263709        45.56400808075244        
-899.9999999999998       39.00872981936837        49.09566177018492        
-863.0141039008228       1.609405767073611        75                       
-808.3103843209381       -12.34342409680767       74.99999999999999        
-444.6755089443399       82.49999999999999        69.99999999999999        
-438.8983005692332       82.49999999999999        74.99999999999999        
-450.4482558473709       82.50000000000001        75                       
-442.1761657644905       73.98092661086375        74.99999999999999        
-433.1256089266414       82.49999999999999        69.99999999999997        
-427.3483452910955       82.49999999999999        74.99999999999999        
-432.4296668310421       72.68195935161765        74.99999999999999        
-421.5757089089431       82.5                     69.99999999999999        
-419.0336180841207       69.86902999479847        75                       
-415.7983900129579       82.5                     74.99999999999999        
-537.074709085927        82.49999999999997        69.99999999999999        
-537.2672535112882       70.43141878399615        74.99999999999999        
-531.2979427943349       82.49999999999999        74.99999999999999        
-571.7244091390221       82.49999999999999        70                       
-571.6189138741793       69.59737976855686        74.99999999999999        
-560.8520206909916       68.27806702214689        64.50211588541667        
-546.7776765814569       58.89564845849513        75                       
-547.7909551246277       64.441328640111          61.5625                  
-551.0960823692636       73.47066432005549        63.28124999999999        
-565.2356893948195       56.51134986188168        74.99999999999999        
-525.5248090682285       82.49999999999999        69.99999999999999        
-525.0486101687652       69.33010638101747        75                       
-490.8751090151336       82.49999999999999        69.99999999999999        
-485.0981216817842       82.5                     74.99999999999999        
-496.6480769599218       82.49999999999999        74.99999999999999        
-487.8556533370658       69.95515810189147        74.99999999999999        
-502.4250090328318       82.49999999999997        69.99999999999999        
-502.6139834356779       69.3936688052338         74.99999999999999        
-495.3306398086679       75.45280523734482        65                       
-496.6519858276042       82.49999999999999        65                       
-485.1021410703452       82.49999999999999        64.99999999999999        
-452.5913980593391       70.53318857632178        74.99999999999999        
-456.2254089620383       82.5                     70                       
-461.9982111255085       82.49999999999999        74.99999999999999        
-467.7753089797366       82.49999999999999        69.99999999999999        
-473.5481664036464       82.5                     75                       
-467.1332895586141       71.05707815795355        74.99999999999999        
-479.3252089974351       82.49999999999999        70                       
-479.5284127937418       69.61580742345542        69.37499999999999        
-477.3473449014634       73.45902193946756        74.99999999999999        
-475.4131028644579       60.72891670651507        74.99999999999999        
-467.0963678906654       77.71389975979297        63.74999999999998        
-438.9027620413089       82.49999999999999        65                       
-386.926008855848        82.49999999999999        69.99999999999999        
-381.1485241785448       82.49999999999999        75                       
-392.6984794566823       82.49999999999999        74.99999999999999        
-383.4372318030428       70.53997107330395        74.99999999999999        
-340.7264087850545       82.49999999999999        70                       
-346.4986583441316       82.49999999999997        74.99999999999999        
-340.7224737987863       74.15445263377038        74.99999999999999        
-334.9487030659939       82.50000000000001        75                       
-427.3529172840497       82.49999999999997        64.99999999999997        
-410.0258088912449       82.5                     69.99999999999999        
-404.2484347348201       82.5                     75                       
-408.7700070112087       73.23732964240784        74.99999999999999        
-398.4759088735465       82.49999999999999        69.99999999999999        
-397.383792937152        70.52988096191299        74.99999999999999        
-398.0258168293534       76.72290482955198        65.25912091637542        
-421.4836347034288       73.83791221619938        63.98071289062501        
-408.0005355794482       60.04197620054268        74.99999999999999        
-413.657887769894        61.47489965263632        63.74999999999999        
-424.766678942397        57.75469183051894        74.99999999999999        
-410.8220944641981       39.39312163351241        74.99999999999999        
-329.1765087673562       82.5                     70                       
-329.8146631006136       70.75956431193924        74.99999999999999        
-323.3987477878563       82.5                     75                       
-352.2763088027531       82.5                     69.99999999999999        
-358.0486136222693       82.49999999999999        74.99999999999999        
-349.5744807788598       71.11740389713529        74.99999999999997        
-306.0767087319592       82.49999999999999        70                       
-300.2988372315808       82.49999999999999        74.99999999999999        
-311.8487925097184       82.5                     74.99999999999999        
-303.9678319722886       72.59233388448365        74.99999999999999        
-317.6266087496578       82.49999999999997        69.99999999999999        
-317.2763285335309       68.58327149000502        74.99999999999999        
-294.5268087142609       82.5                     69.99999999999999        
-288.7488819534431       82.5                     75                       
-291.6544112389537       70.53740443639524        74.99999999999999        
-282.9769086965626       82.49999999999997        69.99999999999999        
-277.1989266753054       82.49999999999999        75                       
-282.4079575596946       73.69246302635545        74.99999999999999        
-254.1052459251639       82.5                     65                       
-248.3272086434675       82.49999999999999        69.99999999999999        
-254.0990161190301       82.5                     75                       
-253.3988528630942       74.12961010156644        65.46867056207343        
-259.8771086611657       82.49999999999999        70                       
-259.9888830792372       77.13242791127212        66.08752587077383        
-723.1721043387729       83.45205418639871        58.67187499999999        
-723.8379337180486       90.7727995692884         64.99999999999999        
-735.0896697771263       80.18280938160493        57.92968749999999        
-735.4062616143415       90.74729840222015        64.99999999999999        
-744.7368658520371       84.31060752752178        57.92968749999999        
-754.3803490435006       88.9150106385285         59.62252885867387        
-746.9432731226067       90.7555962918337         64.99999999999997        
-754.6368014039244       99.08023063575632        64.99999999999999        
-730.823964340042        92.05234486717119        56.24999999999999        
-731.559388035447        99.06809542743538        64.99999999999999        
-741.2226133937276       94.61941397082744        57.32421874999999        
-743.1400374594959       99.02521030463774        64.99999999999999        
-724.9704529270938       101.0502290324043        54.99999999999999        
-731.8525706531317       105.0308082554122        56.71874999999999        
-727.6252212318124       107.5                    64.99999999999999        
-716.075421411787        107.5                    64.99999999999999        
-739.175021051837        107.5                    64.99999999999999        
-694.0888583340337       87.98110004244083        58.24218749999999        
-689.1783690281303       90.78625165048018        64.99999999999999        
-676.6169655095109       87.02494696772847        57.85156249999999        
-696.8875664288928       99.09763279647292        64.99999999999999        
-677.6414090555146       90.76980913839704        65                       
-747.9165241574298       67.24379441984244        60.15624999999999        
-733.002325431645        67.44238182175053        59.28267045454544        
-769.8804430765754       69.38144046234375        48.65478515624998        
-772.1780381844611       56.12370168131009        46.05957031249999        
-753.6312279941401       -1.015317825164857       74.99999999999997        
-749.8757449647135       51.61140042557826        57.07519531249999        
-744.5292275625728       35.44070614320736        74.99999999999999        
-754.844452123114        38.66106742879572        58.86718749999999        
-711.0806038166957       40.62028801085435        74.99999999999999        
-693.7882843320964       43.84680749215799        75                       
-693.1462875643638       24.33423497563575        74.99999999999999        
-718.6213340761187       34.55341866252923        60.79196110817862        
-721.5372663522359       24.90073533381991        74.99999999999999        
-726.1585134657181       43.07137401795256        74.99999999999999        
-755.0566532750785       80.25239900329365        51.05468749999999        
-755.5494298425015       64.33302457208033        48.74999999999999        